REMARK  Name = BGI
REMARK  14 active torsions:
REMARK  status: ('A' for Active; 'I' for Inactive)
REMARK    1  A    between atoms: C_1  and  CA_14
REMARK    2  A    between atoms: C_2  and  CA_15
REMARK    3  A    between atoms: C_3  and  N_23
REMARK    4  A    between atoms: C_6  and  C_7
REMARK    5  A    between atoms: C_7  and  C_8
REMARK    6  A    between atoms: C_7  and  CA_14
REMARK    7  A    between atoms: C_8  and  C_9
REMARK    8  A    between atoms: C_8  and  O_27
REMARK    9  A    between atoms: C_11  and  O_26
REMARK   10  A    between atoms: CA_14  and  N_25
REMARK   11  A    between atoms: CA_15  and  C_20
REMARK   12  A    between atoms: CA_15  and  N_22
REMARK   13  A    between atoms: C_16  and  O_33
REMARK   14  A    between atoms: C_17  and  O_32
REMARK                            x       y       z     vdW  Elec       q    Type
REMARK                         _______ _______ _______ _____ _____    ______ ____
ROOT
ATOM      1  CA  UNL     1       0.910  -2.292   0.396  0.00  0.00    +0.218 C 
ENDROOT
BRANCH   1   2
ATOM      2  C   UNL     1       2.148  -1.854  -0.388  0.00  0.00    +0.183 C 
ATOM      3  C   UNL     1       3.613  -0.119  -0.729  0.00  0.00    +0.255 C 
ATOM      4  C   UNL     1       3.433  -2.298   0.346  0.00  0.00    +0.178 C 
ATOM      5  C   UNL     1       4.419  -1.130   0.116  0.00  0.00    +0.195 C 
ATOM      6  O   UNL     1       2.228  -0.413  -0.438  0.00  0.00    -0.345 OA
BRANCH   3  11
ATOM      7  C   UNL     1       3.937   2.946   1.299  0.00  0.00    +0.088 A 
ATOM      8  C   UNL     1       4.551   2.072  -1.205  0.00  0.00    +0.331 A 
ATOM      9  C   UNL     1       3.627   1.685   0.929  0.00  0.00    +0.098 A 
ATOM     10  C   UNL     1       4.577   3.799   0.368  0.00  0.00    +0.254 A 
ATOM     11  N   UNL     1       3.939   1.253  -0.331  0.00  0.00    -0.271 N 
ATOM     12  N   UNL     1       4.862   3.337  -0.866  0.00  0.00    -0.275 N 
ATOM     13  O   UNL     1       4.865   4.941   0.679  0.00  0.00    -0.268 OA
ATOM     14  O   UNL     1       4.827   1.665  -2.317  0.00  0.00    -0.246 OA
ATOM     15  H   UNL     1       5.299   3.927  -1.522  0.00  0.00    +0.173 HD
ENDBRANCH   3  11
BRANCH   5  16
ATOM     16  O   UNL     1       5.570  -1.578  -0.603  0.00  0.00    -0.385 OA
ATOM     17  H   UNL     1       5.292  -1.970  -1.446  0.00  0.00    +0.210 HD
ENDBRANCH   5  16
BRANCH   4  18
ATOM     18  O   UNL     1       3.943  -3.506  -0.223  0.00  0.00    -0.386 OA
ATOM     19  H   UNL     1       4.110  -3.373  -1.169  0.00  0.00    +0.210 HD
ENDBRANCH   4  18
ENDBRANCH   1   2
BRANCH   1  21
ATOM     20  C   UNL     1      -1.440  -2.621  -0.162  0.00  0.00    +0.200 C 
ATOM     21  N   UNL     1      -0.296  -1.934  -0.356  0.00  0.00    -0.302 N 
ATOM     22  O   UNL     1      -1.472  -3.530   0.639  0.00  0.00    -0.278 OA
ATOM     23  H   UNL     1      -0.271  -1.192  -1.003  0.00  0.00    +0.150 HD
BRANCH  20  24
ATOM     24  CA  UNL     1      -2.680  -2.253  -0.936  0.00  0.00    +0.018 C 
BRANCH  24  25
ATOM     25  N   UNL     1      -3.616  -3.385  -0.927  0.00  0.00    +0.386 N 
ATOM     26  H1  UNL     1      -3.869  -3.609   0.035  0.00  0.00    -0.089 HD
ATOM     27  H2  UNL     1      -3.173  -4.196  -1.360  0.00  0.00    -0.089 HD
ATOM     28  H3  UNL     1      -4.455  -3.136  -1.450  0.00  0.00    -0.089 HD
ENDBRANCH  24  25
BRANCH  24  30
ATOM     29  C   UNL     1      -3.724  -1.373   1.157  0.00  0.00    +0.009 C 
ATOM     30  C   UNL     1      -3.344  -1.037  -0.287  0.00  0.00    +0.015 C 
BRANCH  30  31
ATOM     31  C   UNL     1      -4.602  -0.664  -1.072  0.00  0.00    +0.165 C 
BRANCH  31  32
ATOM     32  C   UNL     1      -5.174   0.618  -0.525  0.00  0.00    +0.070 A 
ATOM     33  C   UNL     1      -6.054   1.775   1.263  0.00  0.00    +0.156 A 
ATOM     34  C   UNL     1      -6.212   2.919   0.494  0.00  0.00    +0.135 A 
ATOM     35  C   UNL     1      -5.833   2.891  -0.844  0.00  0.00    +0.049 A 
ATOM     36  C   UNL     1      -5.306   1.716  -1.355  0.00  0.00    +0.029 A 
ATOM     37  N   UNL     1      -5.548   0.677   0.739  0.00  0.00    -0.254 NA
BRANCH  34  38
ATOM     38  O   UNL     1      -6.734   4.049   1.039  0.00  0.00    -0.505 OA
ATOM     39  H   UNL     1      -6.987   4.060   1.941  0.00  0.00    +0.292 HD
ENDBRANCH  34  38
ENDBRANCH  31  32
BRANCH  31  40
ATOM     40  O   UNL     1      -4.269  -0.486  -2.450  0.00  0.00    -0.385 OA
ATOM     41  H   UNL     1      -3.613   0.224  -2.535  0.00  0.00    +0.210 HD
ENDBRANCH  31  40
ENDBRANCH  30  31
ENDBRANCH  24  30
ENDBRANCH  20  24
ENDBRANCH   1  21
BRANCH   1  42
ATOM     42  C   UNL     1       0.891  -1.599   1.734  0.00  0.00    +0.378 C 
ATOM     43  O   UNL     1       1.902  -1.780   2.598  0.00  0.00    -0.244 OA
ATOM     44  OXT UNL     1      -0.035  -0.880   2.029  0.00  0.00    -0.244 OA
ENDBRANCH   1  42
TORSDOF 13
