MODEL 1
REMARK VINA RESULT:    -7.613      0.000      0.000
REMARK INTER + INTRA:         -14.670
REMARK INTER:                 -12.286
REMARK INTRA:                  -2.384
REMARK UNBOUND:                -2.384
REMARK  Name = BGI
REMARK  14 active torsions:
REMARK  status: ('A' for Active; 'I' for Inactive)
REMARK    1  A    between atoms: C_1  and  CA_14
REMARK    2  A    between atoms: C_2  and  CA_15
REMARK    3  A    between atoms: C_3  and  N_23
REMARK    4  A    between atoms: C_6  and  C_7
REMARK    5  A    between atoms: C_7  and  C_8
REMARK    6  A    between atoms: C_7  and  CA_14
REMARK    7  A    between atoms: C_8  and  C_9
REMARK    8  A    between atoms: C_8  and  O_27
REMARK    9  A    between atoms: C_11  and  O_26
REMARK   10  A    between atoms: CA_14  and  N_25
REMARK   11  A    between atoms: CA_15  and  C_20
REMARK   12  A    between atoms: CA_15  and  N_22
REMARK   13  A    between atoms: C_16  and  O_33
REMARK   14  A    between atoms: C_17  and  O_32
REMARK                            x       y       z     vdW  Elec       q    Type
REMARK                         _______ _______ _______ _____ _____    ______ ____
ROOT
ATOM      1  CA  UNL     1      20.405  10.982  14.334  0.00  0.00    +0.218 C 
ENDROOT
BRANCH   1   2
ATOM      2  C   UNL     1      19.148  11.324  15.135  0.00  0.00    +0.183 C 
ATOM      3  C   UNL     1      18.307  11.565  17.258  0.00  0.00    +0.255 C 
ATOM      4  C   UNL     1      19.029  12.853  15.320  0.00  0.00    +0.178 C 
ATOM      5  C   UNL     1      18.462  13.015  16.749  0.00  0.00    +0.195 C 
ATOM      6  O   UNL     1      19.246  10.794  16.475  0.00  0.00    -0.345 OA
BRANCH   3  11
ATOM      7  C   UNL     1      20.262  11.327  20.378  0.00  0.00    +0.088 A 
ATOM      8  C   UNL     1      17.660  11.516  19.600  0.00  0.00    +0.331 A 
ATOM      9  C   UNL     1      19.952  11.390  19.065  0.00  0.00    +0.098 A 
ATOM     10  C   UNL     1      19.218  11.356  21.334  0.00  0.00    +0.254 A 
ATOM     11  N   UNL     1      18.642  11.485  18.682  0.00  0.00    -0.271 N 
ATOM     12  N   UNL     1      17.939  11.444  20.915  0.00  0.00    -0.275 N 
ATOM     13  O   UNL     1      19.473  11.300  22.524  0.00  0.00    -0.268 OA
ATOM     14  O   UNL     1      16.503  11.609  19.238  0.00  0.00    -0.246 OA
ATOM     15  H   UNL     1      17.207  11.456  21.573  0.00  0.00    +0.173 HD
ENDBRANCH   3  11
BRANCH   5  16
ATOM     16  O   UNL     1      17.194  13.672  16.716  0.00  0.00    -0.385 OA
ATOM     17  H   UNL     1      16.569  13.142  16.196  0.00  0.00    +0.210 HD
ENDBRANCH   5  16
BRANCH   4  18
ATOM     18  O   UNL     1      18.129  13.406  14.357  0.00  0.00    -0.386 OA
ATOM     19  H   UNL     1      18.634  13.766  13.612  0.00  0.00    +0.210 HD
ENDBRANCH   4  18
ENDBRANCH   1   2
BRANCH   1  21
ATOM     20  C   UNL     1      22.330  12.344  13.715  0.00  0.00    +0.200 C 
ATOM     21  N   UNL     1      20.990  12.213  13.795  0.00  0.00    -0.302 N 
ATOM     22  O   UNL     1      23.050  11.441  14.083  0.00  0.00    -0.278 OA
ATOM     23  H   UNL     1      20.406  12.945  13.492  0.00  0.00    +0.150 HD
BRANCH  20  24
ATOM     24  CA  UNL     1      22.932  13.611  13.162  0.00  0.00    +0.018 C 
BRANCH  24  25
ATOM     25  N   UNL     1      24.397  13.527  13.232  0.00  0.00    +0.386 N 
ATOM     26  H1  UNL     1      24.798  13.860  12.356  0.00  0.00    -0.089 HD
ATOM     27  H2  UNL     1      24.675  12.558  13.388  0.00  0.00    -0.089 HD
ATOM     28  H3  UNL     1      24.733  14.106  14.001  0.00  0.00    -0.089 HD
ENDBRANCH  24  25
BRANCH  24  30
ATOM     29  C   UNL     1      23.634  13.338  10.779  0.00  0.00    +0.009 C 
ATOM     30  C   UNL     1      22.500  13.786  11.705  0.00  0.00    +0.015 C 
BRANCH  30  31
ATOM     31  C   UNL     1      22.178  15.257  11.442  0.00  0.00    +0.165 C 
BRANCH  31  32
ATOM     32  C   UNL     1      20.715  15.400  11.111  0.00  0.00    +0.070 A 
ATOM     33  C   UNL     1      18.518  15.084  11.730  0.00  0.00    +0.156 A 
ATOM     34  C   UNL     1      18.064  15.643  10.544  0.00  0.00    +0.135 A 
ATOM     35  C   UNL     1      18.992  16.091   9.609  0.00  0.00    +0.049 A 
ATOM     36  C   UNL     1      20.339  15.963   9.906  0.00  0.00    +0.029 A 
ATOM     37  N   UNL     1      19.809  14.981  11.974  0.00  0.00    -0.254 NA
BRANCH  34  38
ATOM     38  O   UNL     1      16.732  15.747  10.297  0.00  0.00    -0.505 OA
ATOM     39  H   UNL     1      16.127  15.191  10.747  0.00  0.00    +0.292 HD
ENDBRANCH  34  38
ENDBRANCH  31  32
BRANCH  31  40
ATOM     40  O   UNL     1      22.479  16.027  12.608  0.00  0.00    -0.385 OA
ATOM     41  H   UNL     1      21.953  16.842  12.602  0.00  0.00    +0.210 HD
ENDBRANCH  31  40
ENDBRANCH  30  31
ENDBRANCH  24  30
ENDBRANCH  20  24
ENDBRANCH   1  21
BRANCH   1  42
ATOM     42  C   UNL     1      20.043  10.061  13.198  0.00  0.00    +0.378 C 
ATOM     43  O   UNL     1      20.567   8.826  13.142  0.00  0.00    -0.244 OA
ATOM     44  OXT UNL     1      19.279  10.433  12.338  0.00  0.00    -0.244 OA
ENDBRANCH   1  42
TORSDOF 13
ENDMDL
MODEL 2
REMARK VINA RESULT:    -7.535      3.699      8.060
REMARK INTER + INTRA:         -14.545
REMARK INTER:                 -12.246
REMARK INTRA:                  -2.299
REMARK UNBOUND:                -2.384
REMARK  Name = BGI
REMARK  14 active torsions:
REMARK  status: ('A' for Active; 'I' for Inactive)
REMARK    1  A    between atoms: C_1  and  CA_14
REMARK    2  A    between atoms: C_2  and  CA_15
REMARK    3  A    between atoms: C_3  and  N_23
REMARK    4  A    between atoms: C_6  and  C_7
REMARK    5  A    between atoms: C_7  and  C_8
REMARK    6  A    between atoms: C_7  and  CA_14
REMARK    7  A    between atoms: C_8  and  C_9
REMARK    8  A    between atoms: C_8  and  O_27
REMARK    9  A    between atoms: C_11  and  O_26
REMARK   10  A    between atoms: CA_14  and  N_25
REMARK   11  A    between atoms: CA_15  and  C_20
REMARK   12  A    between atoms: CA_15  and  N_22
REMARK   13  A    between atoms: C_16  and  O_33
REMARK   14  A    between atoms: C_17  and  O_32
REMARK                            x       y       z     vdW  Elec       q    Type
REMARK                         _______ _______ _______ _____ _____    ______ ____
ROOT
ATOM      1  CA  UNL     1      17.667   8.704  14.532  0.00  0.00    +0.218 C 
ENDROOT
BRANCH   1   2
ATOM      2  C   UNL     1      17.528  10.003  13.737  0.00  0.00    +0.183 C 
ATOM      3  C   UNL     1      16.902  12.208  13.876  0.00  0.00    +0.255 C 
ATOM      4  C   UNL     1      18.867  10.774  13.731  0.00  0.00    +0.178 C 
ATOM      5  C   UNL     1      18.445  12.258  13.825  0.00  0.00    +0.195 C 
ATOM      6  O   UNL     1      16.591  10.891  14.384  0.00  0.00    -0.345 OA
BRANCH   3  11
ATOM      7  C   UNL     1      15.789  13.919  16.949  0.00  0.00    +0.088 A 
ATOM      8  C   UNL     1      16.062  14.450  14.293  0.00  0.00    +0.331 A 
ATOM      9  C   UNL     1      16.253  12.965  16.114  0.00  0.00    +0.098 A 
ATOM     10  C   UNL     1      15.446  15.188  16.422  0.00  0.00    +0.254 A 
ATOM     11  N   UNL     1      16.388  13.239  14.781  0.00  0.00    -0.271 N 
ATOM     12  N   UNL     1      15.587  15.416  15.101  0.00  0.00    -0.275 N 
ATOM     13  O   UNL     1      15.024  16.063  17.156  0.00  0.00    -0.268 OA
ATOM     14  O   UNL     1      16.197  14.675  13.106  0.00  0.00    -0.246 OA
ATOM     15  H   UNL     1      15.342  16.293  14.726  0.00  0.00    +0.173 HD
ENDBRANCH   3  11
BRANCH   5  16
ATOM     16  O   UNL     1      18.884  12.979  12.671  0.00  0.00    -0.385 OA
ATOM     17  H   UNL     1      18.905  13.928  12.872  0.00  0.00    +0.210 HD
ENDBRANCH   5  16
BRANCH   4  18
ATOM     18  O   UNL     1      19.580  10.530  12.517  0.00  0.00    -0.386 OA
ATOM     19  H   UNL     1      20.413  10.074  12.717  0.00  0.00    +0.210 HD
ENDBRANCH   4  18
ENDBRANCH   1   2
BRANCH   1  21
ATOM     20  C   UNL     1      18.222   8.743  16.905  0.00  0.00    +0.200 C 
ATOM     21  N   UNL     1      18.621   8.901  15.627  0.00  0.00    -0.302 N 
ATOM     22  O   UNL     1      17.077   8.431  17.148  0.00  0.00    -0.278 OA
ATOM     23  H   UNL     1      19.553   9.149  15.429  0.00  0.00    +0.150 HD
BRANCH  20  24
ATOM     24  CA  UNL     1      19.204   8.946  18.031  0.00  0.00    +0.018 C 
BRANCH  24  25
ATOM     25  N   UNL     1      20.507   9.340  17.479  0.00  0.00    +0.386 N 
ATOM     26  H1  UNL     1      20.376  10.093  16.803  0.00  0.00    -0.089 HD
ATOM     27  H2  UNL     1      20.936   8.539  17.016  0.00  0.00    -0.089 HD
ATOM     28  H3  UNL     1      21.112   9.662  18.233  0.00  0.00    -0.089 HD
ENDBRANCH  24  25
BRANCH  24  30
ATOM     29  C   UNL     1      18.986  11.415  18.346  0.00  0.00    +0.009 C 
ATOM     30  C   UNL     1      18.691  10.046  18.962  0.00  0.00    +0.015 C 
BRANCH  30  31
ATOM     31  C   UNL     1      19.392   9.935  20.317  0.00  0.00    +0.165 C 
BRANCH  31  32
ATOM     32  C   UNL     1      18.513  10.528  21.387  0.00  0.00    +0.070 A 
ATOM     33  C   UNL     1      18.327  11.802  23.298  0.00  0.00    +0.156 A 
ATOM     34  C   UNL     1      16.953  11.613  23.337  0.00  0.00    +0.135 A 
ATOM     35  C   UNL     1      16.350  10.839  22.351  0.00  0.00    +0.049 A 
ATOM     36  C   UNL     1      17.151  10.290  21.363  0.00  0.00    +0.029 A 
ATOM     37  N   UNL     1      19.054  11.263  22.340  0.00  0.00    -0.254 NA
BRANCH  34  38
ATOM     38  O   UNL     1      16.208  12.171  24.327  0.00  0.00    -0.505 OA
ATOM     39  H   UNL     1      15.630  12.883  24.133  0.00  0.00    +0.292 HD
ENDBRANCH  34  38
ENDBRANCH  31  32
BRANCH  31  40
ATOM     40  O   UNL     1      19.640   8.559  20.614  0.00  0.00    -0.385 OA
ATOM     41  H   UNL     1      20.440   8.268  20.148  0.00  0.00    +0.210 HD
ENDBRANCH  31  40
ENDBRANCH  30  31
ENDBRANCH  24  30
ENDBRANCH  20  24
ENDBRANCH   1  21
BRANCH   1  42
ATOM     42  C   UNL     1      18.164   7.609  13.624  0.00  0.00    +0.378 C 
ATOM     43  O   UNL     1      17.294   6.756  13.061  0.00  0.00    -0.244 OA
ATOM     44  OXT UNL     1      19.348   7.499  13.402  0.00  0.00    -0.244 OA
ENDBRANCH   1  42
TORSDOF 13
ENDMDL
MODEL 3
REMARK VINA RESULT:    -7.532      2.691      8.952
REMARK INTER + INTRA:         -14.540
REMARK INTER:                 -13.114
REMARK INTRA:                  -1.426
REMARK UNBOUND:                -2.384
REMARK  Name = BGI
REMARK  14 active torsions:
REMARK  status: ('A' for Active; 'I' for Inactive)
REMARK    1  A    between atoms: C_1  and  CA_14
REMARK    2  A    between atoms: C_2  and  CA_15
REMARK    3  A    between atoms: C_3  and  N_23
REMARK    4  A    between atoms: C_6  and  C_7
REMARK    5  A    between atoms: C_7  and  C_8
REMARK    6  A    between atoms: C_7  and  CA_14
REMARK    7  A    between atoms: C_8  and  C_9
REMARK    8  A    between atoms: C_8  and  O_27
REMARK    9  A    between atoms: C_11  and  O_26
REMARK   10  A    between atoms: CA_14  and  N_25
REMARK   11  A    between atoms: CA_15  and  C_20
REMARK   12  A    between atoms: CA_15  and  N_22
REMARK   13  A    between atoms: C_16  and  O_33
REMARK   14  A    between atoms: C_17  and  O_32
REMARK                            x       y       z     vdW  Elec       q    Type
REMARK                         _______ _______ _______ _____ _____    ______ ____
ROOT
ATOM      1  CA  UNL     1      18.938  10.976  14.428  0.00  0.00    +0.218 C 
ENDROOT
BRANCH   1   2
ATOM      2  C   UNL     1      19.248  12.468  14.304  0.00  0.00    +0.183 C 
ATOM      3  C   UNL     1      18.696  14.394  13.181  0.00  0.00    +0.255 C 
ATOM      4  C   UNL     1      18.421  13.276  15.329  0.00  0.00    +0.178 C 
ATOM      5  C   UNL     1      18.050  14.572  14.573  0.00  0.00    +0.195 C 
ATOM      6  O   UNL     1      18.828  12.964  13.014  0.00  0.00    -0.345 OA
BRANCH   3  11
ATOM      7  C   UNL     1      15.672  15.466  11.359  0.00  0.00    +0.088 A 
ATOM      8  C   UNL     1      18.375  15.478  11.030  0.00  0.00    +0.331 A 
ATOM      9  C   UNL     1      16.471  14.942  12.313  0.00  0.00    +0.098 A 
ATOM     10  C   UNL     1      16.260  16.013  10.193  0.00  0.00    +0.254 A 
ATOM     11  N   UNL     1      17.828  14.952  12.141  0.00  0.00    -0.271 N 
ATOM     12  N   UNL     1      17.602  15.998  10.059  0.00  0.00    -0.275 N 
ATOM     13  O   UNL     1      15.560  16.490   9.318  0.00  0.00    -0.268 OA
ATOM     14  O   UNL     1      19.584  15.485  10.901  0.00  0.00    -0.246 OA
ATOM     15  H   UNL     1      18.018  16.368   9.247  0.00  0.00    +0.173 HD
ENDBRANCH   3  11
BRANCH   5  16
ATOM     16  O   UNL     1      18.595  15.714  15.236  0.00  0.00    -0.385 OA
ATOM     17  H   UNL     1      19.481  15.501  15.570  0.00  0.00    +0.210 HD
ENDBRANCH   5  16
BRANCH   4  18
ATOM     18  O   UNL     1      19.209  13.575  16.483  0.00  0.00    -0.386 OA
ATOM     19  H   UNL     1      19.073  12.888  17.155  0.00  0.00    +0.210 HD
ENDBRANCH   4  18
ENDBRANCH   1   2
BRANCH   1  21
ATOM     20  C   UNL     1      18.658   9.672  16.468  0.00  0.00    +0.200 C 
ATOM     21  N   UNL     1      19.432  10.479  15.715  0.00  0.00    -0.302 N 
ATOM     22  O   UNL     1      17.556   9.351  16.076  0.00  0.00    -0.278 OA
ATOM     23  H   UNL     1      20.329  10.736  16.031  0.00  0.00    +0.150 HD
BRANCH  20  24
ATOM     24  CA  UNL     1      19.166   9.162  17.792  0.00  0.00    +0.018 C 
BRANCH  24  25
ATOM     25  N   UNL     1      20.582   9.521  17.944  0.00  0.00    +0.386 N 
ATOM     26  H1  UNL     1      20.656  10.499  18.223  0.00  0.00    -0.089 HD
ATOM     27  H2  UNL     1      21.065   9.384  17.055  0.00  0.00    -0.089 HD
ATOM     28  H3  UNL     1      21.008   8.930  18.657  0.00  0.00    -0.089 HD
ENDBRANCH  24  25
BRANCH  24  30
ATOM     29  C   UNL     1      18.147  11.282  18.638  0.00  0.00    +0.009 C 
ATOM     30  C   UNL     1      18.355   9.793  18.926  0.00  0.00    +0.015 C 
BRANCH  30  31
ATOM     31  C   UNL     1      19.112   9.629  20.245  0.00  0.00    +0.165 C 
BRANCH  31  32
ATOM     32  C   UNL     1      18.341  10.299  21.353  0.00  0.00    +0.070 A 
ATOM     33  C   UNL     1      18.353  11.633  23.232  0.00  0.00    +0.156 A 
ATOM     34  C   UNL     1      16.977  11.521  23.367  0.00  0.00    +0.135 A 
ATOM     35  C   UNL     1      16.268  10.755  22.448  0.00  0.00    +0.049 A 
ATOM     36  C   UNL     1      16.969  10.136  21.426  0.00  0.00    +0.029 A 
ATOM     37  N   UNL     1      18.983  11.029  22.245  0.00  0.00    -0.254 NA
BRANCH  34  38
ATOM     38  O   UNL     1      16.332  12.146  24.387  0.00  0.00    -0.505 OA
ATOM     39  H   UNL     1      16.660  12.958  24.721  0.00  0.00    +0.292 HD
ENDBRANCH  34  38
ENDBRANCH  31  32
BRANCH  31  40
ATOM     40  O   UNL     1      19.259   8.239  20.541  0.00  0.00    -0.385 OA
ATOM     41  H   UNL     1      20.083   7.911  20.148  0.00  0.00    +0.210 HD
ENDBRANCH  31  40
ENDBRANCH  30  31
ENDBRANCH  24  30
ENDBRANCH  20  24
ENDBRANCH   1  21
BRANCH   1  42
ATOM     42  C   UNL     1      19.614  10.227  13.308  0.00  0.00    +0.378 C 
ATOM     43  O   UNL     1      20.853  10.570  12.923  0.00  0.00    -0.244 OA
ATOM     44  OXT UNL     1      19.040   9.316  12.757  0.00  0.00    -0.244 OA
ENDBRANCH   1  42
TORSDOF 13
ENDMDL
MODEL 4
REMARK VINA RESULT:    -7.476      3.266      9.267
REMARK INTER + INTRA:         -14.450
REMARK INTER:                 -12.676
REMARK INTRA:                  -1.773
REMARK UNBOUND:                -2.384
REMARK  Name = BGI
REMARK  14 active torsions:
REMARK  status: ('A' for Active; 'I' for Inactive)
REMARK    1  A    between atoms: C_1  and  CA_14
REMARK    2  A    between atoms: C_2  and  CA_15
REMARK    3  A    between atoms: C_3  and  N_23
REMARK    4  A    between atoms: C_6  and  C_7
REMARK    5  A    between atoms: C_7  and  C_8
REMARK    6  A    between atoms: C_7  and  CA_14
REMARK    7  A    between atoms: C_8  and  C_9
REMARK    8  A    between atoms: C_8  and  O_27
REMARK    9  A    between atoms: C_11  and  O_26
REMARK   10  A    between atoms: CA_14  and  N_25
REMARK   11  A    between atoms: CA_15  and  C_20
REMARK   12  A    between atoms: CA_15  and  N_22
REMARK   13  A    between atoms: C_16  and  O_33
REMARK   14  A    between atoms: C_17  and  O_32
REMARK                            x       y       z     vdW  Elec       q    Type
REMARK                         _______ _______ _______ _____ _____    ______ ____
ROOT
ATOM      1  CA  UNL     1      22.343   9.236  15.374  0.00  0.00    +0.218 C 
ENDROOT
BRANCH   1   2
ATOM      2  C   UNL     1      23.592  10.007  14.946  0.00  0.00    +0.183 C 
ATOM      3  C   UNL     1      24.378  11.623  13.515  0.00  0.00    +0.255 C 
ATOM      4  C   UNL     1      23.797  11.243  15.851  0.00  0.00    +0.178 C 
ATOM      5  C   UNL     1      24.326  12.330  14.888  0.00  0.00    +0.195 C 
ATOM      6  O   UNL     1      23.420  10.546  13.617  0.00  0.00    -0.345 OA
BRANCH   3  11
ATOM      7  C   UNL     1      22.898  14.517  11.769  0.00  0.00    +0.088 A 
ATOM      8  C   UNL     1      24.387  12.314  11.185  0.00  0.00    +0.331 A 
ATOM      9  C   UNL     1      23.244  13.656  12.750  0.00  0.00    +0.098 A 
ATOM     10  C   UNL     1      23.316  14.252  10.442  0.00  0.00    +0.254 A 
ATOM     11  N   UNL     1      23.993  12.551  12.449  0.00  0.00    -0.271 N 
ATOM     12  N   UNL     1      24.048  13.149  10.186  0.00  0.00    -0.275 N 
ATOM     13  O   UNL     1      23.015  15.014   9.540  0.00  0.00    -0.268 OA
ATOM     14  O   UNL     1      25.060  11.330  10.941  0.00  0.00    -0.246 OA
ATOM     15  H   UNL     1      24.335  12.954   9.265  0.00  0.00    +0.173 HD
ENDBRANCH   3  11
BRANCH   5  16
ATOM     16  O   UNL     1      25.632  12.757  15.281  0.00  0.00    -0.385 OA
ATOM     17  H   UNL     1      25.638  12.947  16.232  0.00  0.00    +0.210 HD
ENDBRANCH   5  16
BRANCH   4  18
ATOM     18  O   UNL     1      24.759  10.963  16.870  0.00  0.00    -0.386 OA
ATOM     19  H   UNL     1      24.327  10.988  17.738  0.00  0.00    +0.210 HD
ENDBRANCH   4  18
ENDBRANCH   1   2
BRANCH   1  21
ATOM     20  C   UNL     1      21.031   9.194  17.428  0.00  0.00    +0.200 C 
ATOM     21  N   UNL     1      22.242   9.245  16.836  0.00  0.00    -0.302 N 
ATOM     22  O   UNL     1      20.028   9.134  16.751  0.00  0.00    -0.278 OA
ATOM     23  H   UNL     1      23.057   9.288  17.386  0.00  0.00    +0.150 HD
BRANCH  20  24
ATOM     24  CA  UNL     1      20.927   9.204  18.932  0.00  0.00    +0.018 C 
BRANCH  24  25
ATOM     25  N   UNL     1      22.146   9.793  19.503  0.00  0.00    +0.386 N 
ATOM     26  H1  UNL     1      22.328  10.692  19.059  0.00  0.00    -0.089 HD
ATOM     27  H2  UNL     1      22.935   9.166  19.339  0.00  0.00    -0.089 HD
ATOM     28  H3  UNL     1      22.020   9.927  20.505  0.00  0.00    -0.089 HD
ENDBRANCH  24  25
BRANCH  24  30
ATOM     29  C   UNL     1      19.928  11.494  18.947  0.00  0.00    +0.009 C 
ATOM     30  C   UNL     1      19.714  10.034  19.354  0.00  0.00    +0.015 C 
BRANCH  30  31
ATOM     31  C   UNL     1      19.539   9.948  20.870  0.00  0.00    +0.165 C 
BRANCH  31  32
ATOM     32  C   UNL     1      18.086  10.137  21.220  0.00  0.00    +0.070 A 
ATOM     33  C   UNL     1      15.883   9.568  20.853  0.00  0.00    +0.156 A 
ATOM     34  C   UNL     1      15.452  10.455  21.829  0.00  0.00    +0.135 A 
ATOM     35  C   UNL     1      16.394  11.213  22.517  0.00  0.00    +0.049 A 
ATOM     36  C   UNL     1      17.732  11.045  22.201  0.00  0.00    +0.029 A 
ATOM     37  N   UNL     1      17.166   9.437  20.583  0.00  0.00    -0.254 NA
BRANCH  34  38
ATOM     38  O   UNL     1      14.128  10.586  22.104  0.00  0.00    -0.505 OA
ATOM     39  H   UNL     1      13.814  11.352  22.543  0.00  0.00    +0.292 HD
ENDBRANCH  34  38
ENDBRANCH  31  32
BRANCH  31  40
ATOM     40  O   UNL     1      19.975   8.667  21.328  0.00  0.00    -0.385 OA
ATOM     41  H   UNL     1      19.278   8.011  21.169  0.00  0.00    +0.210 HD
ENDBRANCH  31  40
ENDBRANCH  30  31
ENDBRANCH  24  30
ENDBRANCH  20  24
ENDBRANCH   1  21
BRANCH   1  42
ATOM     42  C   UNL     1      22.439   7.813  14.887  0.00  0.00    +0.378 C 
ATOM     43  O   UNL     1      23.459   7.035  15.282  0.00  0.00    -0.244 OA
ATOM     44  OXT UNL     1      21.598   7.372  14.139  0.00  0.00    -0.244 OA
ENDBRANCH   1  42
TORSDOF 13
ENDMDL
MODEL 5
REMARK VINA RESULT:    -7.292      3.015      6.330
REMARK INTER + INTRA:         -14.152
REMARK INTER:                 -12.110
REMARK INTRA:                  -2.042
REMARK UNBOUND:                -2.384
REMARK  Name = BGI
REMARK  14 active torsions:
REMARK  status: ('A' for Active; 'I' for Inactive)
REMARK    1  A    between atoms: C_1  and  CA_14
REMARK    2  A    between atoms: C_2  and  CA_15
REMARK    3  A    between atoms: C_3  and  N_23
REMARK    4  A    between atoms: C_6  and  C_7
REMARK    5  A    between atoms: C_7  and  C_8
REMARK    6  A    between atoms: C_7  and  CA_14
REMARK    7  A    between atoms: C_8  and  C_9
REMARK    8  A    between atoms: C_8  and  O_27
REMARK    9  A    between atoms: C_11  and  O_26
REMARK   10  A    between atoms: CA_14  and  N_25
REMARK   11  A    between atoms: CA_15  and  C_20
REMARK   12  A    between atoms: CA_15  and  N_22
REMARK   13  A    between atoms: C_16  and  O_33
REMARK   14  A    between atoms: C_17  and  O_32
REMARK                            x       y       z     vdW  Elec       q    Type
REMARK                         _______ _______ _______ _____ _____    ______ ____
ROOT
ATOM      1  CA  UNL     1      20.135  11.318  14.595  0.00  0.00    +0.218 C 
ENDROOT
BRANCH   1   2
ATOM      2  C   UNL     1      19.613  12.735  14.837  0.00  0.00    +0.183 C 
ATOM      3  C   UNL     1      18.146  14.330  14.076  0.00  0.00    +0.255 C 
ATOM      4  C   UNL     1      18.466  12.715  15.873  0.00  0.00    +0.178 C 
ATOM      5  C   UNL     1      17.479  13.789  15.360  0.00  0.00    +0.195 C 
ATOM      6  O   UNL     1      19.016  13.264  13.633  0.00  0.00    -0.345 OA
BRANCH   3  11
ATOM      7  C   UNL     1      15.010  14.209  12.136  0.00  0.00    +0.088 A 
ATOM      8  C   UNL     1      17.372  15.562  12.130  0.00  0.00    +0.331 A 
ATOM      9  C   UNL     1      15.948  13.934  13.068  0.00  0.00    +0.098 A 
ATOM     10  C   UNL     1      15.276  15.200  11.162  0.00  0.00    +0.254 A 
ATOM     11  N   UNL     1      17.132  14.619  13.058  0.00  0.00    -0.271 N 
ATOM     12  N   UNL     1      16.458  15.848  11.183  0.00  0.00    -0.275 N 
ATOM     13  O   UNL     1      14.446  15.464  10.311  0.00  0.00    -0.268 OA
ATOM     14  O   UNL     1      18.428  16.165  12.145  0.00  0.00    -0.246 OA
ATOM     15  H   UNL     1      16.655  16.533  10.504  0.00  0.00    +0.173 HD
ENDBRANCH   3  11
BRANCH   5  16
ATOM     16  O   UNL     1      17.329  14.833  16.324  0.00  0.00    -0.385 OA
ATOM     17  H   UNL     1      16.629  14.595  16.953  0.00  0.00    +0.210 HD
ENDBRANCH   5  16
BRANCH   4  18
ATOM     18  O   UNL     1      18.957  13.061  17.170  0.00  0.00    -0.386 OA
ATOM     19  H   UNL     1      19.799  12.607  17.329  0.00  0.00    +0.210 HD
ENDBRANCH   4  18
ENDBRANCH   1   2
BRANCH   1  21
ATOM     20  C   UNL     1      21.923  10.906  16.199  0.00  0.00    +0.200 C 
ATOM     21  N   UNL     1      21.555  11.254  14.949  0.00  0.00    -0.302 N 
ATOM     22  O   UNL     1      21.079  10.640  17.026  0.00  0.00    -0.278 OA
ATOM     23  H   UNL     1      22.241  11.465  14.275  0.00  0.00    +0.150 HD
BRANCH  20  24
ATOM     24  CA  UNL     1      23.384  10.840  16.563  0.00  0.00    +0.018 C 
BRANCH  24  25
ATOM     25  N   UNL     1      23.536  10.162  17.857  0.00  0.00    +0.386 N 
ATOM     26  H1  UNL     1      22.653   9.720  18.114  0.00  0.00    -0.089 HD
ATOM     27  H2  UNL     1      23.795  10.844  18.571  0.00  0.00    -0.089 HD
ATOM     28  H3  UNL     1      24.263   9.451  17.785  0.00  0.00    -0.089 HD
ENDBRANCH  24  25
BRANCH  24  30
ATOM     29  C   UNL     1      24.732   8.788  16.098  0.00  0.00    +0.009 C 
ATOM     30  C   UNL     1      24.144  10.062  15.487  0.00  0.00    +0.015 C 
BRANCH  30  31
ATOM     31  C   UNL     1      25.273  10.930  14.932  0.00  0.00    +0.165 C 
BRANCH  31  32
ATOM     32  C   UNL     1      24.844  11.537  13.622  0.00  0.00    +0.070 A 
ATOM     33  C   UNL     1      24.433  11.269  11.370  0.00  0.00    +0.156 A 
ATOM     34  C   UNL     1      24.072  12.602  11.238  0.00  0.00    +0.135 A 
ATOM     35  C   UNL     1      24.110  13.426  12.359  0.00  0.00    +0.049 A 
ATOM     36  C   UNL     1      24.504  12.876  13.568  0.00  0.00    +0.029 A 
ATOM     37  N   UNL     1      24.802  10.784  12.539  0.00  0.00    -0.254 NA
BRANCH  34  38
ATOM     38  O   UNL     1      23.692  13.097  10.031  0.00  0.00    -0.505 OA
ATOM     39  H   UNL     1      23.909  12.634   9.246  0.00  0.00    +0.292 HD
ENDBRANCH  34  38
ENDBRANCH  31  32
BRANCH  31  40
ATOM     40  O   UNL     1      25.575  11.972  15.862  0.00  0.00    -0.385 OA
ATOM     41  H   UNL     1      24.804  12.553  15.958  0.00  0.00    +0.210 HD
ENDBRANCH  31  40
ENDBRANCH  30  31
ENDBRANCH  24  30
ENDBRANCH  20  24
ENDBRANCH   1  21
BRANCH   1  42
ATOM     42  C   UNL     1      19.964  10.961  13.141  0.00  0.00    +0.378 C 
ATOM     43  O   UNL     1      18.793  10.474  12.702  0.00  0.00    -0.244 OA
ATOM     44  OXT UNL     1      20.882  11.114  12.369  0.00  0.00    -0.244 OA
ENDBRANCH   1  42
TORSDOF 13
ENDMDL
